ITEM: TIMESTEP
0
ITEM: NUMBER OF ATOMS
900
ITEM: BOX BOUNDS pp pp pp
0.0000000000000000e+00 3.0000000000000000e+02
0.0000000000000000e+00 3.0000000000000000e+02
-5.0000000000000000e+00 5.0000000000000000e+00
ITEM: ATOMS id type xs ys zs
1 2 0 0 0.5
2 2 0.0333333 0 0.5
3 2 0.0666667 0 0.5
4 2 0.1 0 0.5
5 2 0.133333 0 0.5
6 2 0.166667 0 0.5
7 2 0.2 0 0.5
8 2 0.233333 0 0.5
9 2 0.266667 0 0.5
10 2 0.3 0 0.5
11 2 0.333333 0 0.5
12 2 0.366667 0 0.5
13 2 0.4 0 0.5
14 2 0.433333 0 0.5
15 2 0.466667 0 0.5
16 2 0 0.0333333 0.5
17 1 0.0333333 0.0333333 0.5
18 2 0.0666667 0.0333333 0.5
19 2 0.1 0.0333333 0.5
20 1 0.133333 0.0333333 0.5
21 2 0.166667 0.0333333 0.5
22 2 0.2 0.0333333 0.5
23 2 0.233333 0.0333333 0.5
24 2 0.266667 0.0333333 0.5
25 2 0.3 0.0333333 0.5
26 2 0.333333 0.0333333 0.5
27 2 0.366667 0.0333333 0.5
28 2 0.4 0.0333333 0.5
29 2 0.433333 0.0333333 0.5
30 2 0.466667 0.0333333 0.5
31 2 0 0.0666667 0.5
32 1 0.0333333 0.0666667 0.5
33 2 0.0666667 0.0666667 0.5
34 2 0.1 0.0666667 0.5
35 2 0.133333 0.0666667 0.5
36 2 0.166667 0.0666667 0.5
37 2 0.2 0.0666667 0.5
38 2 0.233333 0.0666667 0.5
39 2 0.266667 0.0666667 0.5
40 2 0.3 0.0666667 0.5
41 2 0.333333 0.0666667 0.5
42 2 0.366667 0.0666667 0.5
43 2 0.4 0.0666667 0.5
44 2 0.433333 0.0666667 0.5
45 2 0.466667 0.0666667 0.5
46 2 0 0.1 0.5
47 2 0.0333333 0.1 0.5
48 2 0.0666667 0.1 0.5
49 2 0.1 0.1 0.5
50 2 0.133333 0.1 0.5
51 2 0.166667 0.1 0.5
52 2 0.2 0.1 0.5
53 2 0.233333 0.1 0.5
54 2 0.266667 0.1 0.5
55 2 0.3 0.1 0.5
56 2 0.333333 0.1 0.5
57 2 0.366667 0.1 0.5
58 2 0.4 0.1 0.5
59 2 0.433333 0.1 0.5
60 2 0.466667 0.1 0.5
61 2 0 0.133333 0.5
62 2 0.0333333 0.133333 0.5
63 2 0.0666667 0.133333 0.5
64 2 0.1 0.133333 0.5
65 2 0.133333 0.133333 0.5
66 2 0.166667 0.133333 0.5
67 2 0.2 0.133333 0.5
68 2 0.233333 0.133333 0.5
69 2 0.266667 0.133333 0.5
70 2 0.3 0.133333 0.5
71 2 0.333333 0.133333 0.5
72 2 0.366667 0.133333 0.5
73 2 0.4 0.133333 0.5
74 2 0.433333 0.133333 0.5
75 1 0.466667 0.133333 0.5
76 2 0 0.166667 0.5
77 2 0.0333333 0.166667 0.5
78 2 0.0666667 0.166667 0.5
79 2 0.1 0.166667 0.5
80 2 0.133333 0.166667 0.5
81 2 0.166667 0.166667 0.5
82 2 0.2 0.166667 0.5
83 2 0.233333 0.166667 0.5
84 2 0.266667 0.166667 0.5
85 2 0.3 0.166667 0.5
86 2 0.333333 0.166667 0.5
87 2 0.366667 0.166667 0.5
88 2 0.4 0.166667 0.5
89 2 0.433333 0.166667 0.5
90 2 0.466667 0.166667 0.5
91 2 0 0.2 0.5
92 2 0.0333333 0.2 0.5
93 2 0.0666667 0.2 0.5
94 2 0.1 0.2 0.5
95 2 0.133333 0.2 0.5
96 2 0.166667 0.2 0.5
97 2 0.2 0.2 0.5
98 2 0.233333 0.2 0.5
99 2 0.266667 0.2 0.5
100 2 0.3 0.2 0.5
101 2 0.333333 0.2 0.5
102 2 0.366667 0.2 0.5
103 2 0.4 0.2 0.5
104 2 0.433333 0.2 0.5
105 2 0.466667 0.2 0.5
106 2 0 0.233333 0.5
107 2 0.0333333 0.233333 0.5
108 2 0.0666667 0.233333 0.5
109 2 0.1 0.233333 0.5
110 2 0.133333 0.233333 0.5
111 2 0.166667 0.233333 0.5
112 2 0.2 0.233333 0.5
113 2 0.233333 0.233333 0.5
114 2 0.266667 0.233333 0.5
115 2 0.3 0.233333 0.5
116 2 0.333333 0.233333 0.5
117 2 0.366667 0.233333 0.5
118 2 0.4 0.233333 0.5
119 1 0.433333 0.233333 0.5
120 2 0.466667 0.233333 0.5
121 2 0 0.266667 0.5
122 2 0.0333333 0.266667 0.5
123 2 0.0666667 0.266667 0.5
124 2 0.1 0.266667 0.5
125 2 0.133333 0.266667 0.5
126 2 0.166667 0.266667 0.5
127 2 0.2 0.266667 0.5
128 2 0.233333 0.266667 0.5
129 2 0.266667 0.266667 0.5
130 2 0.3 0.266667 0.5
131 2 0.333333 0.266667 0.5
132 2 0.366667 0.266667 0.5
133 2 0.4 0.266667 0.5
134 2 0.433333 0.266667 0.5
135 2 0.466667 0.266667 0.5
136 2 0 0.3 0.5
137 2 0.0333333 0.3 0.5
138 2 0.0666667 0.3 0.5
139 2 0.1 0.3 0.5
140 2 0.133333 0.3 0.5
141 2 0.166667 0.3 0.5
142 2 0.2 0.3 0.5
143 2 0.233333 0.3 0.5
144 2 0.266667 0.3 0.5
145 2 0.3 0.3 0.5
146 2 0.333333 0.3 0.5
147 2 0.366667 0.3 0.5
148 2 0.4 0.3 0.5
149 2 0.433333 0.3 0.5
150 2 0.466667 0.3 0.5
151 2 0 0.333333 0.5
152 2 0.0333333 0.333333 0.5
153 2 0.0666667 0.333333 0.5
154 2 0.1 0.333333 0.5
155 2 0.133333 0.333333 0.5
156 2 0.166667 0.333333 0.5
157 2 0.2 0.333333 0.5
158 2 0.233333 0.333333 0.5
159 2 0.266667 0.333333 0.5
160 2 0.3 0.333333 0.5
161 2 0.333333 0.333333 0.5
162 2 0.366667 0.333333 0.5
163 2 0.4 0.333333 0.5
164 2 0.433333 0.333333 0.5
165 2 0.466667 0.333333 0.5
166 2 0 0.366667 0.5
167 2 0.0333333 0.366667 0.5
168 2 0.0666667 0.366667 0.5
169 2 0.1 0.366667 0.5
170 2 0.133333 0.366667 0.5
171 2 0.166667 0.366667 0.5
172 2 0.2 0.366667 0.5
173 2 0.233333 0.366667 0.5
174 2 0.266667 0.366667 0.5
175 2 0.3 0.366667 0.5
176 1 0.333333 0.366667 0.5
177 2 0.366667 0.366667 0.5
178 2 0.4 0.366667 0.5
179 2 0.433333 0.366667 0.5
180 2 0.466667 0.366667 0.5
181 2 0 0.4 0.5
182 2 0.0333333 0.4 0.5
183 2 0.0666667 0.4 0.5
184 2 0.1 0.4 0.5
185 2 0.133333 0.4 0.5
186 2 0.166667 0.4 0.5
187 2 0.2 0.4 0.5
188 2 0.233333 0.4 0.5
189 2 0.266667 0.4 0.5
190 2 0.3 0.4 0.5
191 2 0.333333 0.4 0.5
192 2 0.366667 0.4 0.5
193 2 0.4 0.4 0.5
194 2 0.433333 0.4 0.5
195 2 0.466667 0.4 0.5
196 2 0 0.433333 0.5
197 2 0.0333333 0.433333 0.5
198 2 0.0666667 0.433333 0.5
199 2 0.1 0.433333 0.5
200 2 0.133333 0.433333 0.5
201 2 0.166667 0.433333 0.5
202 2 0.2 0.433333 0.5
203 2 0.233333 0.433333 0.5
204 2 0.266667 0.433333 0.5
205 2 0.3 0.433333 0.5
206 2 0.333333 0.433333 0.5
207 2 0.366667 0.433333 0.5
208 2 0.4 0.433333 0.5
209 2 0.433333 0.433333 0.5
210 1 0.466667 0.433333 0.5
211 2 0 0.466667 0.5
212 2 0.0333333 0.466667 0.5
213 2 0.0666667 0.466667 0.5
214 2 0.1 0.466667 0.5
215 2 0.133333 0.466667 0.5
216 2 0.166667 0.466667 0.5
217 2 0.2 0.466667 0.5
218 2 0.233333 0.466667 0.5
219 2 0.266667 0.466667 0.5
220 2 0.3 0.466667 0.5
221 2 0.333333 0.466667 0.5
222 2 0.366667 0.466667 0.5
223 2 0.4 0.466667 0.5
224 2 0.433333 0.466667 0.5
225 2 0.466667 0.466667 0.5
226 2 0 0.5 0.5
227 2 0.0333333 0.5 0.5
228 2 0.0666667 0.5 0.5
229 2 0.1 0.5 0.5
230 2 0.133333 0.5 0.5
231 2 0.166667 0.5 0.5
232 2 0.2 0.5 0.5
233 2 0.233333 0.5 0.5
234 2 0.266667 0.5 0.5
235 2 0.3 0.5 0.5
236 2 0.333333 0.5 0.5
237 2 0.366667 0.5 0.5
238 2 0.4 0.5 0.5
239 2 0.433333 0.5 0.5
240 2 0.466667 0.5 0.5
241 2 0 0.533333 0.5
242 2 0.0333333 0.533333 0.5
243 2 0.0666667 0.533333 0.5
244 2 0.1 0.533333 0.5
245 2 0.133333 0.533333 0.5
246 2 0.166667 0.533333 0.5
247 2 0.2 0.533333 0.5
248 2 0.233333 0.533333 0.5
249 2 0.266667 0.533333 0.5
250 2 0.3 0.533333 0.5
251 2 0.333333 0.533333 0.5
252 2 0.366667 0.533333 0.5
253 2 0.4 0.533333 0.5
254 2 0.433333 0.533333 0.5
255 1 0.466667 0.533333 0.5
256 2 0 0.566667 0.5
257 2 0.0333333 0.566667 0.5
258 2 0.0666667 0.566667 0.5
259 2 0.1 0.566667 0.5
260 2 0.133333 0.566667 0.5
261 2 0.166667 0.566667 0.5
262 2 0.2 0.566667 0.5
263 2 0.233333 0.566667 0.5
264 2 0.266667 0.566667 0.5
265 2 0.3 0.566667 0.5
266 2 0.333333 0.566667 0.5
267 2 0.366667 0.566667 0.5
268 2 0.4 0.566667 0.5
269 2 0.433333 0.566667 0.5
270 2 0.466667 0.566667 0.5
271 2 0 0.6 0.5
272 2 0.0333333 0.6 0.5
273 2 0.0666667 0.6 0.5
274 2 0.1 0.6 0.5
275 1 0.133333 0.6 0.5
276 2 0.166667 0.6 0.5
277 2 0.2 0.6 0.5
278 2 0.233333 0.6 0.5
279 2 0.266667 0.6 0.5
280 1 0.3 0.6 0.5
281 2 0.333333 0.6 0.5
282 2 0.366667 0.6 0.5
283 2 0.4 0.6 0.5
284 2 0.433333 0.6 0.5
285 2 0.466667 0.6 0.5
286 2 0 0.633333 0.5
287 2 0.0333333 0.633333 0.5
288 2 0.0666667 0.633333 0.5
289 2 0.1 0.633333 0.5
290 2 0.133333 0.633333 0.5
291 2 0.166667 0.633333 0.5
292 2 0.2 0.633333 0.5
293 2 0.233333 0.633333 0.5
294 2 0.266667 0.633333 0.5
295 2 0.3 0.633333 0.5
296 2 0.333333 0.633333 0.5
297 2 0.366667 0.633333 0.5
298 2 0.4 0.633333 0.5
299 2 0.433333 0.633333 0.5
300 2 0.466667 0.633333 0.5
301 2 0 0.666667 0.5
302 2 0.0333333 0.666667 0.5
303 2 0.0666667 0.666667 0.5
304 2 0.1 0.666667 0.5
305 2 0.133333 0.666667 0.5
306 2 0.166667 0.666667 0.5
307 2 0.2 0.666667 0.5
308 2 0.233333 0.666667 0.5
309 1 0.266667 0.666667 0.5
310 2 0.3 0.666667 0.5
311 2 0.333333 0.666667 0.5
312 2 0.366667 0.666667 0.5
313 2 0.4 0.666667 0.5
314 2 0.433333 0.666667 0.5
315 2 0.466667 0.666667 0.5
316 2 0 0.7 0.5
317 2 0.0333333 0.7 0.5
318 2 0.0666667 0.7 0.5
319 2 0.1 0.7 0.5
320 2 0.133333 0.7 0.5
321 2 0.166667 0.7 0.5
322 2 0.2 0.7 0.5
323 2 0.233333 0.7 0.5
324 2 0.266667 0.7 0.5
325 2 0.3 0.7 0.5
326 2 0.333333 0.7 0.5
327 2 0.366667 0.7 0.5
328 2 0.4 0.7 0.5
329 2 0.433333 0.7 0.5
330 2 0.466667 0.7 0.5
331 2 0 0.733333 0.5
332 2 0.0333333 0.733333 0.5
333 2 0.0666667 0.733333 0.5
334 2 0.1 0.733333 0.5
335 2 0.133333 0.733333 0.5
336 2 0.166667 0.733333 0.5
337 2 0.2 0.733333 0.5
338 2 0.233333 0.733333 0.5
339 2 0.266667 0.733333 0.5
340 2 0.3 0.733333 0.5
341 2 0.333333 0.733333 0.5
342 2 0.366667 0.733333 0.5
343 2 0.4 0.733333 0.5
344 2 0.433333 0.733333 0.5
345 2 0.466667 0.733333 0.5
346 1 0 0.766667 0.5
347 2 0.0333333 0.766667 0.5
348 2 0.0666667 0.766667 0.5
349 2 0.1 0.766667 0.5
350 2 0.133333 0.766667 0.5
351 1 0.166667 0.766667 0.5
352 2 0.2 0.766667 0.5
353 2 0.233333 0.766667 0.5
354 2 0.266667 0.766667 0.5
355 2 0.3 0.766667 0.5
356 2 0.333333 0.766667 0.5
357 2 0.366667 0.766667 0.5
358 2 0.4 0.766667 0.5
359 2 0.433333 0.766667 0.5
360 2 0.466667 0.766667 0.5
361 2 0 0.8 0.5
362 2 0.0333333 0.8 0.5
363 2 0.0666667 0.8 0.5
364 2 0.1 0.8 0.5
365 1 0.133333 0.8 0.5
366 2 0.166667 0.8 0.5
367 2 0.2 0.8 0.5
368 2 0.233333 0.8 0.5
369 2 0.266667 0.8 0.5
370 2 0.3 0.8 0.5
371 1 0.333333 0.8 0.5
372 2 0.366667 0.8 0.5
373 2 0.4 0.8 0.5
374 2 0.433333 0.8 0.5
375 2 0.466667 0.8 0.5
376 2 0 0.833333 0.5
377 2 0.0333333 0.833333 0.5
378 2 0.0666667 0.833333 0.5
379 2 0.1 0.833333 0.5
380 2 0.133333 0.833333 0.5
381 2 0.166667 0.833333 0.5
382 2 0.2 0.833333 0.5
383 2 0.233333 0.833333 0.5
384 2 0.266667 0.833333 0.5
385 2 0.3 0.833333 0.5
386 2 0.333333 0.833333 0.5
387 2 0.366667 0.833333 0.5
388 2 0.4 0.833333 0.5
389 2 0.433333 0.833333 0.5
390 2 0.466667 0.833333 0.5
391 2 0 0.866667 0.5
392 2 0.0333333 0.866667 0.5
393 2 0.0666667 0.866667 0.5
394 2 0.1 0.866667 0.5
395 2 0.133333 0.866667 0.5
396 2 0.166667 0.866667 0.5
397 2 0.2 0.866667 0.5
398 2 0.233333 0.866667 0.5
399 2 0.266667 0.866667 0.5
400 2 0.3 0.866667 0.5
401 2 0.333333 0.866667 0.5
402 2 0.366667 0.866667 0.5
403 2 0.4 0.866667 0.5
404 2 0.433333 0.866667 0.5
405 2 0.466667 0.866667 0.5
406 2 0 0.9 0.5
407 2 0.0333333 0.9 0.5
408 2 0.0666667 0.9 0.5
409 2 0.1 0.9 0.5
410 2 0.133333 0.9 0.5
411 2 0.166667 0.9 0.5
412 2 0.2 0.9 0.5
413 2 0.233333 0.9 0.5
414 2 0.266667 0.9 0.5
415 1 0.3 0.9 0.5
416 2 0.333333 0.9 0.5
417 2 0.366667 0.9 0.5
418 2 0.4 0.9 0.5
419 2 0.433333 0.9 0.5
420 2 0.466667 0.9 0.5
421 2 0 0.933333 0.5
422 2 0.0333333 0.933333 0.5
423 2 0.0666667 0.933333 0.5
424 2 0.1 0.933333 0.5
425 2 0.133333 0.933333 0.5
426 2 0.166667 0.933333 0.5
427 2 0.2 0.933333 0.5
428 2 0.233333 0.933333 0.5
429 2 0.266667 0.933333 0.5
430 2 0.3 0.933333 0.5
431 2 0.333333 0.933333 0.5
432 2 0.366667 0.933333 0.5
433 2 0.4 0.933333 0.5
434 2 0.433333 0.933333 0.5
435 2 0.466667 0.933333 0.5
436 2 0 0.966667 0.5
437 2 0.0333333 0.966667 0.5
438 2 0.0666667 0.966667 0.5
439 2 0.1 0.966667 0.5
440 2 0.133333 0.966667 0.5
441 2 0.166667 0.966667 0.5
442 2 0.2 0.966667 0.5
443 2 0.233333 0.966667 0.5
444 2 0.266667 0.966667 0.5
445 2 0.3 0.966667 0.5
446 2 0.333333 0.966667 0.5
447 2 0.366667 0.966667 0.5
448 2 0.4 0.966667 0.5
449 2 0.433333 0.966667 0.5
450 2 0.466667 0.966667 0.5
451 2 0.5 0 0.5
452 2 0.533333 0 0.5
453 2 0.566667 0 0.5
454 2 0.6 0 0.5
455 2 0.633333 0 0.5
456 2 0.666667 0 0.5
457 2 0.7 0 0.5
458 2 0.733333 0 0.5
459 2 0.766667 0 0.5
460 2 0.8 0 0.5
461 1 0.833333 0 0.5
462 1 0.866667 0 0.5
463 2 0.9 0 0.5
464 2 0.933333 0 0.5
465 2 0.966667 0 0.5
466 2 0.5 0.0333333 0.5
467 2 0.533333 0.0333333 0.5
468 2 0.566667 0.0333333 0.5
469 2 0.6 0.0333333 0.5
470 1 0.633333 0.0333333 0.5
471 2 0.666667 0.0333333 0.5
472 2 0.7 0.0333333 0.5
473 2 0.733333 0.0333333 0.5
474 2 0.766667 0.0333333 0.5
475 2 0.8 0.0333333 0.5
476 2 0.833333 0.0333333 0.5
477 2 0.866667 0.0333333 0.5
478 2 0.9 0.0333333 0.5
479 2 0.933333 0.0333333 0.5
480 2 0.966667 0.0333333 0.5
481 2 0.5 0.0666667 0.5
482 2 0.533333 0.0666667 0.5
483 2 0.566667 0.0666667 0.5
484 2 0.6 0.0666667 0.5
485 2 0.633333 0.0666667 0.5
486 1 0.666667 0.0666667 0.5
487 2 0.7 0.0666667 0.5
488 2 0.733333 0.0666667 0.5
489 2 0.766667 0.0666667 0.5
490 2 0.8 0.0666667 0.5
491 2 0.833333 0.0666667 0.5
492 2 0.866667 0.0666667 0.5
493 2 0.9 0.0666667 0.5
494 2 0.933333 0.0666667 0.5
495 2 0.966667 0.0666667 0.5
496 2 0.5 0.1 0.5
497 2 0.533333 0.1 0.5
498 2 0.566667 0.1 0.5
499 2 0.6 0.1 0.5
500 1 0.633333 0.1 0.5
501 2 0.666667 0.1 0.5
502 2 0.7 0.1 0.5
503 2 0.733333 0.1 0.5
504 2 0.766667 0.1 0.5
505 2 0.8 0.1 0.5
506 2 0.833333 0.1 0.5
507 2 0.866667 0.1 0.5
508 2 0.9 0.1 0.5
509 2 0.933333 0.1 0.5
510 2 0.966667 0.1 0.5
511 2 0.5 0.133333 0.5
512 2 0.533333 0.133333 0.5
513 2 0.566667 0.133333 0.5
514 2 0.6 0.133333 0.5
515 2 0.633333 0.133333 0.5
516 2 0.666667 0.133333 0.5
517 2 0.7 0.133333 0.5
518 1 0.733333 0.133333 0.5
519 2 0.766667 0.133333 0.5
520 2 0.8 0.133333 0.5
521 2 0.833333 0.133333 0.5
522 2 0.866667 0.133333 0.5
523 2 0.9 0.133333 0.5
524 2 0.933333 0.133333 0.5
525 2 0.966667 0.133333 0.5
526 2 0.5 0.166667 0.5
527 2 0.533333 0.166667 0.5
528 2 0.566667 0.166667 0.5
529 2 0.6 0.166667 0.5
530 2 0.633333 0.166667 0.5
531 2 0.666667 0.166667 0.5
532 2 0.7 0.166667 0.5
533 2 0.733333 0.166667 0.5
534 2 0.766667 0.166667 0.5
535 2 0.8 0.166667 0.5
536 2 0.833333 0.166667 0.5
537 2 0.866667 0.166667 0.5
538 1 0.9 0.166667 0.5
539 2 0.933333 0.166667 0.5
540 2 0.966667 0.166667 0.5
541 2 0.5 0.2 0.5
542 2 0.533333 0.2 0.5
543 2 0.566667 0.2 0.5
544 2 0.6 0.2 0.5
545 2 0.633333 0.2 0.5
546 2 0.666667 0.2 0.5
547 2 0.7 0.2 0.5
548 2 0.733333 0.2 0.5
549 2 0.766667 0.2 0.5
550 2 0.8 0.2 0.5
551 2 0.833333 0.2 0.5
552 2 0.866667 0.2 0.5
553 2 0.9 0.2 0.5
554 2 0.933333 0.2 0.5
555 2 0.966667 0.2 0.5
556 2 0.5 0.233333 0.5
557 2 0.533333 0.233333 0.5
558 2 0.566667 0.233333 0.5
559 2 0.6 0.233333 0.5
560 2 0.633333 0.233333 0.5
561 2 0.666667 0.233333 0.5
562 2 0.7 0.233333 0.5
563 2 0.733333 0.233333 0.5
564 2 0.766667 0.233333 0.5
565 2 0.8 0.233333 0.5
566 1 0.833333 0.233333 0.5
567 2 0.866667 0.233333 0.5
568 2 0.9 0.233333 0.5
569 2 0.933333 0.233333 0.5
570 2 0.966667 0.233333 0.5
571 2 0.5 0.266667 0.5
572 2 0.533333 0.266667 0.5
573 2 0.566667 0.266667 0.5
574 2 0.6 0.266667 0.5
575 2 0.633333 0.266667 0.5
576 2 0.666667 0.266667 0.5
577 2 0.7 0.266667 0.5
578 2 0.733333 0.266667 0.5
579 2 0.766667 0.266667 0.5
580 2 0.8 0.266667 0.5
581 2 0.833333 0.266667 0.5
582 2 0.866667 0.266667 0.5
583 2 0.9 0.266667 0.5
584 2 0.933333 0.266667 0.5
585 2 0.966667 0.266667 0.5
586 2 0.5 0.3 0.5
587 2 0.533333 0.3 0.5
588 2 0.566667 0.3 0.5
589 2 0.6 0.3 0.5
590 2 0.633333 0.3 0.5
591 1 0.666667 0.3 0.5
592 1 0.7 0.3 0.5
593 2 0.733333 0.3 0.5
594 2 0.766667 0.3 0.5
595 2 0.8 0.3 0.5
596 2 0.833333 0.3 0.5
597 2 0.866667 0.3 0.5
598 2 0.9 0.3 0.5
599 2 0.933333 0.3 0.5
600 2 0.966667 0.3 0.5
601 2 0.5 0.333333 0.5
602 2 0.533333 0.333333 0.5
603 2 0.566667 0.333333 0.5
604 2 0.6 0.333333 0.5
605 2 0.633333 0.333333 0.5
606 2 0.666667 0.333333 0.5
607 2 0.7 0.333333 0.5
608 2 0.733333 0.333333 0.5
609 2 0.766667 0.333333 0.5
610 1 0.8 0.333333 0.5
611 2 0.833333 0.333333 0.5
612 2 0.866667 0.333333 0.5
613 2 0.9 0.333333 0.5
614 2 0.933333 0.333333 0.5
615 2 0.966667 0.333333 0.5
616 2 0.5 0.366667 0.5
617 1 0.533333 0.366667 0.5
618 2 0.566667 0.366667 0.5
619 2 0.6 0.366667 0.5
620 2 0.633333 0.366667 0.5
621 2 0.666667 0.366667 0.5
622 2 0.7 0.366667 0.5
623 2 0.733333 0.366667 0.5
624 2 0.766667 0.366667 0.5
625 2 0.8 0.366667 0.5
626 1 0.833333 0.366667 0.5
627 2 0.866667 0.366667 0.5
628 2 0.9 0.366667 0.5
629 2 0.933333 0.366667 0.5
630 2 0.966667 0.366667 0.5
631 2 0.5 0.4 0.5
632 2 0.533333 0.4 0.5
633 2 0.566667 0.4 0.5
634 2 0.6 0.4 0.5
635 2 0.633333 0.4 0.5
636 2 0.666667 0.4 0.5
637 2 0.7 0.4 0.5
638 2 0.733333 0.4 0.5
639 2 0.766667 0.4 0.5
640 2 0.8 0.4 0.5
641 2 0.833333 0.4 0.5
642 2 0.866667 0.4 0.5
643 2 0.9 0.4 0.5
644 2 0.933333 0.4 0.5
645 2 0.966667 0.4 0.5
646 2 0.5 0.433333 0.5
647 2 0.533333 0.433333 0.5
648 2 0.566667 0.433333 0.5
649 2 0.6 0.433333 0.5
650 2 0.633333 0.433333 0.5
651 2 0.666667 0.433333 0.5
652 2 0.7 0.433333 0.5
653 2 0.733333 0.433333 0.5
654 2 0.766667 0.433333 0.5
655 2 0.8 0.433333 0.5
656 1 0.833333 0.433333 0.5
657 2 0.866667 0.433333 0.5
658 2 0.9 0.433333 0.5
659 2 0.933333 0.433333 0.5
660 2 0.966667 0.433333 0.5
661 2 0.5 0.466667 0.5
662 2 0.533333 0.466667 0.5
663 2 0.566667 0.466667 0.5
664 2 0.6 0.466667 0.5
665 2 0.633333 0.466667 0.5
666 2 0.666667 0.466667 0.5
667 2 0.7 0.466667 0.5
668 2 0.733333 0.466667 0.5
669 2 0.766667 0.466667 0.5
670 2 0.8 0.466667 0.5
671 2 0.833333 0.466667 0.5
672 2 0.866667 0.466667 0.5
673 2 0.9 0.466667 0.5
674 2 0.933333 0.466667 0.5
675 2 0.966667 0.466667 0.5
676 2 0.5 0.5 0.5
677 2 0.533333 0.5 0.5
678 2 0.566667 0.5 0.5
679 1 0.6 0.5 0.5
680 2 0.633333 0.5 0.5
681 2 0.666667 0.5 0.5
682 2 0.7 0.5 0.5
683 2 0.733333 0.5 0.5
684 2 0.766667 0.5 0.5
685 2 0.8 0.5 0.5
686 2 0.833333 0.5 0.5
687 2 0.866667 0.5 0.5
688 2 0.9 0.5 0.5
689 2 0.933333 0.5 0.5
690 2 0.966667 0.5 0.5
691 2 0.5 0.533333 0.5
692 2 0.533333 0.533333 0.5
693 2 0.566667 0.533333 0.5
694 2 0.6 0.533333 0.5
695 1 0.633333 0.533333 0.5
696 2 0.666667 0.533333 0.5
697 2 0.7 0.533333 0.5
698 2 0.733333 0.533333 0.5
699 2 0.766667 0.533333 0.5
700 2 0.8 0.533333 0.5
701 2 0.833333 0.533333 0.5
702 2 0.866667 0.533333 0.5
703 2 0.9 0.533333 0.5
704 2 0.933333 0.533333 0.5
705 2 0.966667 0.533333 0.5
706 2 0.5 0.566667 0.5
707 2 0.533333 0.566667 0.5
708 2 0.566667 0.566667 0.5
709 2 0.6 0.566667 0.5
710 2 0.633333 0.566667 0.5
711 2 0.666667 0.566667 0.5
712 1 0.7 0.566667 0.5
713 2 0.733333 0.566667 0.5
714 2 0.766667 0.566667 0.5
715 2 0.8 0.566667 0.5
716 2 0.833333 0.566667 0.5
717 2 0.866667 0.566667 0.5
718 2 0.9 0.566667 0.5
719 2 0.933333 0.566667 0.5
720 2 0.966667 0.566667 0.5
721 2 0.5 0.6 0.5
722 2 0.533333 0.6 0.5
723 2 0.566667 0.6 0.5
724 2 0.6 0.6 0.5
725 2 0.633333 0.6 0.5
726 2 0.666667 0.6 0.5
727 2 0.7 0.6 0.5
728 2 0.733333 0.6 0.5
729 2 0.766667 0.6 0.5
730 2 0.8 0.6 0.5
731 2 0.833333 0.6 0.5
732 2 0.866667 0.6 0.5
733 2 0.9 0.6 0.5
734 2 0.933333 0.6 0.5
735 2 0.966667 0.6 0.5
736 2 0.5 0.633333 0.5
737 2 0.533333 0.633333 0.5
738 2 0.566667 0.633333 0.5
739 2 0.6 0.633333 0.5
740 2 0.633333 0.633333 0.5
741 2 0.666667 0.633333 0.5
742 2 0.7 0.633333 0.5
743 2 0.733333 0.633333 0.5
744 2 0.766667 0.633333 0.5
745 2 0.8 0.633333 0.5
746 2 0.833333 0.633333 0.5
747 2 0.866667 0.633333 0.5
748 2 0.9 0.633333 0.5
749 2 0.933333 0.633333 0.5
750 2 0.966667 0.633333 0.5
751 2 0.5 0.666667 0.5
752 2 0.533333 0.666667 0.5
753 2 0.566667 0.666667 0.5
754 2 0.6 0.666667 0.5
755 2 0.633333 0.666667 0.5
756 2 0.666667 0.666667 0.5
757 2 0.7 0.666667 0.5
758 2 0.733333 0.666667 0.5
759 2 0.766667 0.666667 0.5
760 2 0.8 0.666667 0.5
761 2 0.833333 0.666667 0.5
762 2 0.866667 0.666667 0.5
763 2 0.9 0.666667 0.5
764 2 0.933333 0.666667 0.5
765 2 0.966667 0.666667 0.5
766 2 0.5 0.7 0.5
767 2 0.533333 0.7 0.5
768 2 0.566667 0.7 0.5
769 2 0.6 0.7 0.5
770 1 0.633333 0.7 0.5
771 2 0.666667 0.7 0.5
772 2 0.7 0.7 0.5
773 2 0.733333 0.7 0.5
774 2 0.766667 0.7 0.5
775 2 0.8 0.7 0.5
776 1 0.833333 0.7 0.5
777 2 0.866667 0.7 0.5
778 2 0.9 0.7 0.5
779 2 0.933333 0.7 0.5
780 2 0.966667 0.7 0.5
781 2 0.5 0.733333 0.5
782 2 0.533333 0.733333 0.5
783 2 0.566667 0.733333 0.5
784 2 0.6 0.733333 0.5
785 2 0.633333 0.733333 0.5
786 2 0.666667 0.733333 0.5
787 2 0.7 0.733333 0.5
788 2 0.733333 0.733333 0.5
789 2 0.766667 0.733333 0.5
790 2 0.8 0.733333 0.5
791 2 0.833333 0.733333 0.5
792 2 0.866667 0.733333 0.5
793 2 0.9 0.733333 0.5
794 2 0.933333 0.733333 0.5
795 2 0.966667 0.733333 0.5
796 2 0.5 0.766667 0.5
797 2 0.533333 0.766667 0.5
798 2 0.566667 0.766667 0.5
799 2 0.6 0.766667 0.5
800 2 0.633333 0.766667 0.5
801 2 0.666667 0.766667 0.5
802 2 0.7 0.766667 0.5
803 2 0.733333 0.766667 0.5
804 2 0.766667 0.766667 0.5
805 2 0.8 0.766667 0.5
806 2 0.833333 0.766667 0.5
807 2 0.866667 0.766667 0.5
808 2 0.9 0.766667 0.5
809 2 0.933333 0.766667 0.5
810 2 0.966667 0.766667 0.5
811 2 0.5 0.8 0.5
812 2 0.533333 0.8 0.5
813 2 0.566667 0.8 0.5
814 2 0.6 0.8 0.5
815 2 0.633333 0.8 0.5
816 2 0.666667 0.8 0.5
817 2 0.7 0.8 0.5
818 2 0.733333 0.8 0.5
819 2 0.766667 0.8 0.5
820 2 0.8 0.8 0.5
821 2 0.833333 0.8 0.5
822 2 0.866667 0.8 0.5
823 2 0.9 0.8 0.5
824 2 0.933333 0.8 0.5
825 2 0.966667 0.8 0.5
826 2 0.5 0.833333 0.5
827 2 0.533333 0.833333 0.5
828 2 0.566667 0.833333 0.5
829 2 0.6 0.833333 0.5
830 2 0.633333 0.833333 0.5
831 2 0.666667 0.833333 0.5
832 2 0.7 0.833333 0.5
833 1 0.733333 0.833333 0.5
834 2 0.766667 0.833333 0.5
835 2 0.8 0.833333 0.5
836 2 0.833333 0.833333 0.5
837 2 0.866667 0.833333 0.5
838 2 0.9 0.833333 0.5
839 2 0.933333 0.833333 0.5
840 2 0.966667 0.833333 0.5
841 2 0.5 0.866667 0.5
842 2 0.533333 0.866667 0.5
843 2 0.566667 0.866667 0.5
844 2 0.6 0.866667 0.5
845 2 0.633333 0.866667 0.5
846 2 0.666667 0.866667 0.5
847 2 0.7 0.866667 0.5
848 2 0.733333 0.866667 0.5
849 1 0.766667 0.866667 0.5
850 2 0.8 0.866667 0.5
851 2 0.833333 0.866667 0.5
852 2 0.866667 0.866667 0.5
853 2 0.9 0.866667 0.5
854 2 0.933333 0.866667 0.5
855 2 0.966667 0.866667 0.5
856 2 0.5 0.9 0.5
857 2 0.533333 0.9 0.5
858 2 0.566667 0.9 0.5
859 2 0.6 0.9 0.5
860 2 0.633333 0.9 0.5
861 2 0.666667 0.9 0.5
862 2 0.7 0.9 0.5
863 2 0.733333 0.9 0.5
864 2 0.766667 0.9 0.5
865 2 0.8 0.9 0.5
866 2 0.833333 0.9 0.5
867 2 0.866667 0.9 0.5
868 2 0.9 0.9 0.5
869 2 0.933333 0.9 0.5
870 2 0.966667 0.9 0.5
871 2 0.5 0.933333 0.5
872 2 0.533333 0.933333 0.5
873 2 0.566667 0.933333 0.5
874 1 0.6 0.933333 0.5
875 2 0.633333 0.933333 0.5
876 2 0.666667 0.933333 0.5
877 2 0.7 0.933333 0.5
878 2 0.733333 0.933333 0.5
879 2 0.766667 0.933333 0.5
880 2 0.8 0.933333 0.5
881 2 0.833333 0.933333 0.5
882 2 0.866667 0.933333 0.5
883 2 0.9 0.933333 0.5
884 2 0.933333 0.933333 0.5
885 2 0.966667 0.933333 0.5
886 2 0.5 0.966667 0.5
887 2 0.533333 0.966667 0.5
888 2 0.566667 0.966667 0.5
889 2 0.6 0.966667 0.5
890 2 0.633333 0.966667 0.5
891 2 0.666667 0.966667 0.5
892 2 0.7 0.966667 0.5
893 2 0.733333 0.966667 0.5
894 2 0.766667 0.966667 0.5
895 2 0.8 0.966667 0.5
896 2 0.833333 0.966667 0.5
897 2 0.866667 0.966667 0.5
898 2 0.9 0.966667 0.5
899 1 0.933333 0.966667 0.5
900 2 0.966667 0.966667 0.5
ITEM: TIMESTEP
1000
ITEM: NUMBER OF ATOMS
900
ITEM: BOX BOUNDS pp pp pp
2.7286367719381275e+01 2.7271363228061767e+02
2.7286367719381275e+01 2.7271363228061767e+02
-5.0000000000000000e+00 5.0000000000000000e+00
ITEM: ATOMS id type xs ys zs
437 2 0.0143825 0.00728314 0.5
3 2 0.109837 0.0207649 0.5
5 2 0.10245 0.00932788 0.5
19 2 0.0874506 0.0235745 0.5
20 1 0.130292 0.025415 0.5
9 2 0.28919 0.0125986 0.5
446 2 0.325678 0.00153795 0.5
11 2 0.351695 0.0139534 0.5
28 2 0.359874 0.0254445 0.5
27 2 0.361264 0.00195293 0.5
451 2 0.476153 0.0086974 0.5
31 2 0.00456442 0.0340104 0.5
16 2 0.0437901 0.0478341 0.5
17 1 0.0369569 0.0326054 0.5
18 2 0.0472096 0.0524134 0.5
36 2 0.146964 0.0453143 0.5
21 2 0.17739 0.0283711 0.5
25 2 0.278813 0.0307406 0.5
40 2 0.282242 0.045305 0.5
42 2 0.382507 0.0359457 0.5
29 2 0.410607 0.0544922 0.5
15 2 0.427287 0.0420349 0.5
30 2 0.482886 0.0355248 0.5
32 1 0.0235785 0.0572186 0.5
35 2 0.0940007 0.0799226 0.5
51 2 0.155692 0.0652915 0.5
37 2 0.173488 0.0809543 0.5
38 2 0.193454 0.0668793 0.5
24 2 0.221999 0.0720683 0.5
26 2 0.316758 0.0779724 0.5
54 2 0.31416 0.0822976 0.5
56 2 0.309468 0.0673553 0.5
495 2 0.00426642 0.102488 0.5
33 2 0.0493861 0.0871235 0.5
62 2 0.0452678 0.0944066 0.5
47 2 0.0569102 0.0963519 0.5
48 2 0.0717694 0.0910153 0.5
34 2 0.0923995 0.0977854 0.5
49 2 0.135419 0.0883694 0.5
65 2 0.165555 0.0987532 0.5
68 2 0.249591 0.0975388 0.5
55 2 0.274403 0.097787 0.5
39 2 0.277806 0.0858224 0.5
41 2 0.358988 0.105819 0.5
43 2 0.379291 0.0881443 0.5
57 2 0.386128 0.0935398 0.5
44 2 0.419493 0.0946521 0.5
45 2 0.425423 0.086183 0.5
73 2 0.426128 0.105043 0.5
481 2 0.46687 0.104236 0.5
540 2 0.0102338 0.122711 0.5
50 2 0.127268 0.127704 0.5
52 2 0.162694 0.114686 0.5
67 2 0.174169 0.117617 0.5
53 2 0.251943 0.119208 0.5
69 2 0.268088 0.113768 0.5
70 2 0.297161 0.138076 0.5
72 2 0.327005 0.130791 0.5
58 2 0.366954 0.111735 0.5
60 2 0.430363 0.123353 0.5
88 2 0.443081 0.136403 0.5
59 2 0.454346 0.112817 0.5
89 2 0.446635 0.136489 0.5
496 2 0.491853 0.124725 0.5
76 2 0.0130938 0.151139 0.5
63 2 0.0386276 0.147104 0.5
64 2 0.0770136 0.166581 0.5
66 2 0.122871 0.143712 0.5
79 2 0.117426 0.164796 0.5
85 2 0.260365 0.155871 0.5
71 2 0.365225 0.154133 0.5
87 2 0.386021 0.162296 0.5
74 2 0.451978 0.155339 0.5
90 2 0.449488 0.158014 0.5
75 1 0.474567 0.142611 0.5
91 2 0.0407174 0.1872 0.5
77 2 0.0798542 0.171778 0.5
94 2 0.0882709 0.171161 0.5
80 2 0.130278 0.172414 0.5
81 2 0.136263 0.171681 0.5
82 2 0.223256 0.190818 0.5
99 2 0.232215 0.177605 0.5
83 2 0.266006 0.173284 0.5
104 2 0.445945 0.168122 0.5
93 2 0.0698682 0.202732 0.5
78 2 0.102462 0.204084 0.5
108 2 0.105805 0.217625 0.5
112 2 0.159687 0.203233 0.5
98 2 0.196179 0.197142 0.5
100 2 0.265972 0.216526 0.5
84 2 0.279627 0.19861 0.5
116 2 0.299908 0.196098 0.5
102 2 0.33207 0.208404 0.5
86 2 0.362216 0.198443 0.5
103 2 0.399664 0.215621 0.5
105 2 0.423843 0.200937 0.5
541 2 0.456553 0.195514 0.5
92 2 0.0285513 0.228001 0.5
121 2 0.0436042 0.249395 0.5
95 2 0.164791 0.233984 0.5
109 2 0.144592 0.2468 0.5
113 2 0.191525 0.247135 0.5
126 2 0.201823 0.248007 0.5
97 2 0.237557 0.234526 0.5
114 2 0.25322 0.240708 0.5
131 2 0.319627 0.222484 0.5
101 2 0.358327 0.233116 0.5
117 2 0.400354 0.22892 0.5
118 2 0.415197 0.249292 0.5
119 1 0.428109 0.247809 0.5
120 2 0.458136 0.245523 0.5
135 2 0.498026 0.237068 0.5
122 2 0.0138097 0.264254 0.5
106 2 0.0336343 0.261925 0.5
107 2 0.0376963 0.276756 0.5
139 2 0.0822356 0.266477 0.5
123 2 0.0889702 0.252172 0.5
110 2 0.150842 0.252754 0.5
111 2 0.163897 0.26208 0.5
124 2 0.146082 0.264708 0.5
125 2 0.162761 0.276179 0.5
127 2 0.160873 0.265189 0.5
96 2 0.174765 0.251706 0.5
141 2 0.193246 0.257304 0.5
115 2 0.262312 0.259201 0.5
128 2 0.258762 0.260957 0.5
129 2 0.267814 0.275117 0.5
130 2 0.296124 0.27072 0.5
134 2 0.400724 0.270293 0.5
152 2 0.046764 0.287916 0.5
142 2 0.16007 0.288072 0.5
160 2 0.274325 0.288927 0.5
145 2 0.28924 0.29243 0.5
144 2 0.309149 0.282944 0.5
146 2 0.325851 0.291147 0.5
132 2 0.366233 0.297674 0.5
147 2 0.387621 0.286265 0.5
571 2 0.457331 0.302821 0.5
138 2 0.104997 0.326499 0.5
154 2 0.0953734 0.325559 0.5
168 2 0.091343 0.329535 0.5
140 2 0.134543 0.316591 0.5
155 2 0.18831 0.329885 0.5
157 2 0.202169 0.318404 0.5
143 2 0.236171 0.329059 0.5
159 2 0.270144 0.324168 0.5
161 2 0.324496 0.323414 0.5
133 2 0.381402 0.310808 0.5
162 2 0.377884 0.311879 0.5
148 2 0.437505 0.330815 0.5
149 2 0.433767 0.313236 0.5
163 2 0.422495 0.33164 0.5
137 2 0.00825888 0.335363 0.5
156 2 0.142829 0.344497 0.5
171 2 0.170141 0.353873 0.5
172 2 0.180795 0.352885 0.5
188 2 0.201803 0.356781 0.5
158 2 0.250255 0.339073 0.5
164 2 0.422164 0.338451 0.5
165 2 0.437862 0.34167 0.5
180 2 0.431659 0.349165 0.5
179 2 0.448236 0.335309 0.5
166 2 0.0142646 0.381977 0.5
169 2 0.0860944 0.371616 0.5
184 2 0.098962 0.374689 0.5
153 2 0.112975 0.373854 0.5
186 2 0.166408 0.381204 0.5
170 2 0.167138 0.377899 0.5
189 2 0.249086 0.37157 0.5
173 2 0.252943 0.387022 0.5
174 2 0.299766 0.378087 0.5
190 2 0.294429 0.386659 0.5
176 1 0.319388 0.378913 0.5
191 2 0.335603 0.388864 0.5
192 2 0.336244 0.36569 0.5
178 2 0.400532 0.379508 0.5
182 2 0.00585925 0.407931 0.5
167 2 0.0667496 0.389507 0.5
187 2 0.191639 0.407627 0.5
175 2 0.266186 0.399829 0.5
207 2 0.347766 0.394156 0.5
177 2 0.364316 0.40993 0.5
209 2 0.45468 0.396863 0.5
194 2 0.476805 0.412098 0.5
198 2 0.0221281 0.44252 0.5
183 2 0.0682969 0.418364 0.5
185 2 0.133659 0.44005 0.5
204 2 0.249828 0.42871 0.5
203 2 0.252637 0.422747 0.5
219 2 0.278753 0.444299 0.5
224 2 0.401303 0.435852 0.5
193 2 0.397378 0.433078 0.5
210 1 0.458329 0.430963 0.5
197 2 0.0276552 0.45767 0.5
199 2 0.132738 0.447238 0.5
202 2 0.166738 0.45863 0.5
230 2 0.177674 0.466561 0.5
201 2 0.202236 0.451357 0.5
216 2 0.200196 0.465755 0.5
220 2 0.267819 0.455274 0.5
234 2 0.297565 0.45111 0.5
221 2 0.352584 0.459523 0.5
206 2 0.371131 0.45967 0.5
208 2 0.414534 0.468522 0.5
646 2 0.470255 0.46964 0.5
662 2 0.493814 0.459522 0.5
211 2 0.0161915 0.49677 0.5
226 2 0.0111311 0.499911 0.5
227 2 0.049454 0.495945 0.5
214 2 0.073007 0.480357 0.5
200 2 0.133479 0.473166 0.5
215 2 0.116299 0.477771 0.5
231 2 0.15117 0.487282 0.5
233 2 0.211733 0.496992 0.5
217 2 0.245537 0.480699 0.5
247 2 0.228489 0.481894 0.5
218 2 0.262489 0.491315 0.5
205 2 0.274624 0.476493 0.5
249 2 0.274182 0.498154 0.5
235 2 0.296958 0.474928 0.5
222 2 0.347463 0.481819 0.5
238 2 0.368568 0.485446 0.5
237 2 0.372984 0.494329 0.5
253 2 0.40426 0.494293 0.5
225 2 0.440187 0.485452 0.5
223 2 0.440425 0.495982 0.5
661 2 0.461897 0.484288 0.5
240 2 0.457027 0.493838 0.5
213 2 0.0221781 0.500378 0.5
229 2 0.0787815 0.526333 0.5
228 2 0.0897961 0.504194 0.5
258 2 0.110598 0.523804 0.5
244 2 0.114289 0.506413 0.5
248 2 0.228067 0.501857 0.5
250 2 0.281094 0.50284 0.5
236 2 0.361997 0.520236 0.5
268 2 0.425399 0.525117 0.5
691 2 0.462449 0.513243 0.5
239 2 0.460227 0.507811 0.5
720 2 0.01018 0.541161 0.5
242 2 0.0329578 0.534164 0.5
257 2 0.0626996 0.550155 0.5
243 2 0.102645 0.533484 0.5
232 2 0.16689 0.533247 0.5
261 2 0.19501 0.533437 0.5
279 2 0.238638 0.555546 0.5
264 2 0.268174 0.538972 0.5
251 2 0.352023 0.535369 0.5
266 2 0.355142 0.53993 0.5
252 2 0.363288 0.540969 0.5
267 2 0.398349 0.549864 0.5
255 1 0.47252 0.528233 0.5
270 2 0.478422 0.55479 0.5
735 2 0.0123337 0.559528 0.5
273 2 0.0536143 0.557955 0.5
245 2 0.0960498 0.558672 0.5
260 2 0.121261 0.575786 0.5
246 2 0.141871 0.570293 0.5
276 2 0.17858 0.573904 0.5
263 2 0.231653 0.571431 0.5
281 2 0.347032 0.559979 0.5
254 2 0.401934 0.576026 0.5
269 2 0.443473 0.572724 0.5
272 2 0.0229348 0.609859 0.5
287 2 0.0393637 0.608218 0.5
259 2 0.0963776 0.595707 0.5