LAMMPS (29 Sep 2021 - Update 2)
Lattice spacing in x,y,z = 10.000000 10.000000 10.000000
Created orthogonal box = (0.0000000 0.0000000 -5.0000000) to (300.00000 300.00000 5.0000000)
  2 by 2 by 1 MPI processor grid
Created 900 atoms
  using lattice units in orthogonal box = (0.0000000 0.0000000 -5.0000000) to (300.00000 300.00000 5.0000000)
  create_atoms CPU = 0.002 seconds
Setting atom values ...
  861 settings made for type/fraction
Setting atom values ...
  39 settings made for mass
Setting atom values ...
  861 settings made for mass

CITE-CITE-CITE-CITE-CITE-CITE-CITE-CITE-CITE-CITE-CITE-CITE-CITE

Your simulation uses code contributions which should be cited:
- neighbor multi command: doi:10.1016/j.cpc.2008.03.005, doi:10.1007/s40571-020-00361-2
The log file lists these citations in BibTeX format.

CITE-CITE-CITE-CITE-CITE-CITE-CITE-CITE-CITE-CITE-CITE-CITE-CITE

Neighbor list info ...
  update every 1 steps, delay 0 steps, check yes
  max neighbors/atom: 2000, page size: 100000
  master list distance cutoff = 13.5
  ghost atom cutoff = 13.5
  binsize = 1.75, bins = 172 172 6
  2 neighbor lists, perpetual/occasional/extra = 1 1 0
  (1) pair colloid, perpetual
      attributes: half, newton on
      pair build: half/multi/newton
      stencil: half/multi/2d
      bin: multi
  (2) compute rdf, occasional, copy from (1)
      attributes: half, newton on
      pair build: copy
      stencil: none
      bin: none
Setting up Verlet run ...
  Unit style    : lj
  Current step  : 0
  Time step     : 0.005
Per MPI rank memory allocation (min/avg/max) = 5.732 | 5.732 | 5.732 Mbytes
Step Temp E_pair TotEng Press Volume 
       0          1.5 -2.2136534e-06    1.4983311  0.014983256        90000 
    1000    2.4495913 0.0036038825    2.4504734  0.038351661    58535.268 
    2000    2.6789246  0.027186753    2.7031348   0.21578814    13571.383 
    3000    2.4387201  0.068969464    2.5049799   0.71769395    5128.9536 
    4000    2.0783458  0.088349455     2.164386   0.92544915    3865.2356 
    5000    2.0075768  0.085713654    2.0910598    0.9193574    3756.0681 
Loop time of 0.280691 on 4 procs for 5000 steps with 900 atoms

Performance: 7695289.370 tau/day, 17813.170 timesteps/s
99.5% CPU use with 4 MPI tasks x no OpenMP threads

MPI task timing breakdown:
Section |  min time  |  avg time  |  max time  |%varavg| %total
---------------------------------------------------------------
Pair    | 0.078271   | 0.078857   | 0.079442   |   0.2 | 28.09
Neigh   | 0.041387   | 0.042549   | 0.043054   |   0.3 | 15.16
Comm    | 0.06841    | 0.068972   | 0.070148   |   0.3 | 24.57
Output  | 0.0012699  | 0.0014777  | 0.0015474  |   0.3 |  0.53
Modify  | 0.070907   | 0.072106   | 0.074731   |   0.6 | 25.69
Other   |            | 0.01673    |            |       |  5.96

Nlocal:        225.000 ave         280 max         165 min
Histogram: 1 0 0 0 1 0 1 0 0 1
Nghost:        311.250 ave         331 max         275 min
Histogram: 1 0 0 0 0 0 0 1 1 1
Neighs:        1499.00 ave        1914 max        1020 min
Histogram: 1 0 0 1 0 0 0 1 0 1

Total # of neighbors = 5996
Ave neighs/atom = 6.6622222
Neighbor list builds = 755
Dangerous builds = 0
Total wall time: 0:00:00
