LAMMPS (29 Sep 2021 - Update 2)
Lattice spacing in x,y,z = 10.000000 10.000000 10.000000
Created orthogonal box = (0.0000000 0.0000000 -5.0000000) to (300.00000 300.00000 5.0000000)
  2 by 2 by 1 MPI processor grid
Created 900 atoms
  using lattice units in orthogonal box = (0.0000000 0.0000000 -5.0000000) to (300.00000 300.00000 5.0000000)
  create_atoms CPU = 0.002 seconds
Setting atom values ...
  861 settings made for type/fraction
Setting atom values ...
  39 settings made for mass
Setting atom values ...
  861 settings made for mass

CITE-CITE-CITE-CITE-CITE-CITE-CITE-CITE-CITE-CITE-CITE-CITE-CITE

Your simulation uses code contributions which should be cited:
- neighbor multi command: doi:10.1016/j.cpc.2008.03.005, doi:10.1007/s40571-020-00361-2
The log file lists these citations in BibTeX format.

CITE-CITE-CITE-CITE-CITE-CITE-CITE-CITE-CITE-CITE-CITE-CITE-CITE

Neighbor list info ...
  update every 1 steps, delay 0 steps, check yes
  max neighbors/atom: 2000, page size: 100000
  master list distance cutoff = 13.5
  ghost atom cutoff = 13.5
  binsize = 1.75, bins = 172 172 6
  2 neighbor lists, perpetual/occasional/extra = 1 1 0
  (1) pair colloid, perpetual
      attributes: half, newton on
      pair build: half/multi/newton
      stencil: half/multi/2d
      bin: multi
  (2) compute rdf, occasional, copy from (1)
      attributes: half, newton on
      pair build: copy
      stencil: none
      bin: none
Setting up Verlet run ...
  Unit style    : lj
  Current step  : 0
  Time step     : 0.005
Per MPI rank memory allocation (min/avg/max) = 5.732 | 5.732 | 5.732 Mbytes
Step Temp E_pair TotEng Press Volume 
       0          0.5 -2.2136534e-06   0.49944223 0.0049943673        90000 
    1000    2.4996804 0.0057990881    2.5027021  0.041639654    56004.337 
    2000     2.667225   0.02202416    2.6862856   0.20403274     13442.15 
    3000    2.3990647  0.077061082    2.4734602    0.8328321     5193.092 
    4000    2.0439069   0.12433851    2.1659744   0.99284559    3903.7193 
    5000    2.0077043  0.087431772    2.0929053   0.91665446    3786.6074 
Loop time of 0.277545 on 4 procs for 5000 steps with 900 atoms

Performance: 7782527.873 tau/day, 18015.111 timesteps/s
99.5% CPU use with 4 MPI tasks x no OpenMP threads

MPI task timing breakdown:
Section |  min time  |  avg time  |  max time  |%varavg| %total
---------------------------------------------------------------
Pair    | 0.075301   | 0.07723    | 0.079129   |   0.6 | 27.83
Neigh   | 0.041266   | 0.04212    | 0.042668   |   0.3 | 15.18
Comm    | 0.066288   | 0.068202   | 0.071194   |   0.7 | 24.57
Output  | 0.0012414  | 0.0014464  | 0.001515   |   0.3 |  0.52
Modify  | 0.070847   | 0.072009   | 0.07474    |   0.6 | 25.94
Other   |            | 0.01654    |            |       |  5.96

Nlocal:        225.000 ave         271 max         170 min
Histogram: 1 0 0 0 1 0 0 1 0 1
Nghost:        301.500 ave         325 max         292 min
Histogram: 3 0 0 0 0 0 0 0 0 1
Neighs:        1502.50 ave        1858 max        1064 min
Histogram: 1 0 0 0 1 0 0 1 0 1

Total # of neighbors = 6010
Ave neighs/atom = 6.6777778
Neighbor list builds = 754
Dangerous builds = 0
Total wall time: 0:00:00
